<?xml version='1.0' encoding='utf-8'?>
<VTKFile type="UnstructuredGrid" version="0.1" byte_order="LittleEndian">
  <UnstructuredGrid>
    <Piece NumberOfPoints="27" NumberOfCells="48">
      <Points>
        <DataArray NumberOfComponents="3" type="Float32" format="ascii">0.0 0.0 0.0 1.0 0.0 0.0 2.0 0.0 0.0 0.0 1.0 0.0 1.0 1.0 0.0 2.0 1.0 0.0 0.0 2.0 0.0 1.0 2.0 0.0 2.0 2.0 0.0 0.0 0.0 1.0 1.0 0.0 1.0 2.0 0.0 1.0 0.0 1.0 1.0 1.0 1.0 1.0 2.0 1.0 1.0 0.0 2.0 1.0 1.0 2.0 1.0 2.0 2.0 1.0 0.0 0.0 2.0 1.0 0.0 2.0 2.0 0.0 2.0 0.0 1.0 2.0 1.0 1.0 2.0 2.0 1.0 2.0 0.0 2.0 2.0 1.0 2.0 2.0 2.0 2.0 2.0 </DataArray>
      </Points>
      <PointData>
        <DataArray Name="delta" NumberOfComponents="3" type="Float32" format="ascii">0.0 0.0 0.0 0.0 0.0 0.0 0.0 0.0 0.0 0.0 0.0 0.0 0.0 0.0 0.0 0.0 0.0 0.0 0.0 0.0 0.0 0.0 0.0 0.0 0.0 0.0 0.0 0.0 0.0 0.0 0.0 0.0 0.0 0.0 0.0 0.0 0.0 0.0 0.0 0.0 0.0 0.0 0.0 0.0 0.0 0.0 0.0 0.0 0.0 0.0 0.0 0.0 0.0 0.0 0.0 0.0 0.0 0.0 0.0 0.0 0.0 0.0 0.0 0.0 0.0 0.0 0.0 0.0 0.0 0.0 0.0 0.0 0.0 0.0 0.0 0.0 0.0 0.0 0.0 0.0 0.0 </DataArray>
        <DataArray Name="fixedX" type="Float32" format="ascii">0 0 0 0 0 0 0 0 0 0 0 0 0 0 0 0 0 0 0 0 0 0 0 0 0 0 0 </DataArray>
        <DataArray Name="fixedY" type="Float32" format="ascii">0 0 0 0 0 0 0 0 0 0 0 0 0 0 0 0 0 0 0 0 0 0 0 0 0 0 0 </DataArray>
        <DataArray Name="fixedZ" type="Float32" format="ascii">0 0 0 0 0 0 0 0 0 0 0 0 0 0 0 0 0 0 0 0 0 0 0 0 0 0 0 </DataArray>
      </PointData>
      <Cells>
        <DataArray Name="connectivity" type="Int32">9 0 12 1 10 9 12 1 10 12 13 1 0 3 12 13 0 4 3 13 0 1 4 13 10 1 13 2 11 10 13 2 11 13 14 2 1 4 13 14 1 5 4 14 1 2 5 14 12 3 15 4 13 12 15 4 13 15 16 4 3 6 15 16 3 7 6 16 3 4 7 16 13 4 16 5 14 13 16 5 14 16 17 5 4 7 16 17 4 8 7 17 4 5 8 17 18 9 21 10 19 18 21 10 19 21 22 10 9 12 21 22 9 13 12 22 9 10 13 22 19 10 22 11 20 19 22 11 20 22 23 11 10 13 22 23 10 14 13 23 10 11 14 23 21 12 24 13 22 21 24 13 22 24 25 13 12 15 24 25 12 16 15 25 12 13 16 25 22 13 25 14 23 22 25 14 23 25 26 14 13 16 25 26 13 17 16 26 13 14 17 26 </DataArray>
        <DataArray Name="offsets" type="Int32">4 8 12 16 20 24 28 32 36 40 44 48 52 56 60 64 68 72 76 80 84 88 92 96 100 104 108 112 116 120 124 128 132 136 140 144 148 152 156 160 164 168 172 176 180 184 188 192 </DataArray>
        <DataArray Name="types" type="Int32">10 10 10 10 10 10 10 10 10 10 10 10 10 10 10 10 10 10 10 10 10 10 10 10 10 10 10 10 10 10 10 10 10 10 10 10 10 10 10 10 10 10 10 10 10 10 10 10 </DataArray>
      </Cells>
    </Piece>
  </UnstructuredGrid>
</VTKFile>