<?xml version='1.0' encoding='utf-8'?>
<VTKFile type="UnstructuredGrid" version="0.1" byte_order="LittleEndian">
  <UnstructuredGrid>
    <Piece NumberOfPoints="72" NumberOfCells="168">
      <Points>
        <DataArray NumberOfComponents="3" type="Float32" format="ascii">0.0 0.0 0.0 21.428571428571427 0.0 0.0 21.428571428571427 0.0 25.0 0.0 0.0 25.0 0.0 25.0 0.0 21.428571428571427 25.0 0.0 21.428571428571427 25.0 25.0 0.0 25.0 25.0 21.428571428571427 0.0 50.0 0.0 0.0 50.0 21.428571428571427 25.0 50.0 0.0 25.0 50.0 0.0 50.0 0.0 21.428571428571427 50.0 0.0 21.428571428571427 50.0 25.0 0.0 50.0 25.0 21.428571428571427 50.0 50.0 0.0 50.0 50.0 42.857142857142854 0.0 0.0 42.857142857142854 0.0 25.0 42.857142857142854 25.0 0.0 42.857142857142854 25.0 25.0 42.857142857142854 0.0 50.0 42.857142857142854 25.0 50.0 42.857142857142854 50.0 0.0 42.857142857142854 50.0 25.0 42.857142857142854 50.0 50.0 64.28571428571428 0.0 0.0 64.28571428571428 0.0 25.0 64.28571428571428 25.0 0.0 64.28571428571428 25.0 25.0 64.28571428571428 0.0 50.0 64.28571428571428 25.0 50.0 64.28571428571428 50.0 0.0 64.28571428571428 50.0 25.0 64.28571428571428 50.0 50.0 85.71428571428571 0.0 0.0 85.71428571428571 0.0 25.0 85.71428571428571 25.0 0.0 85.71428571428571 25.0 25.0 85.71428571428571 0.0 50.0 85.71428571428571 25.0 50.0 85.71428571428571 50.0 0.0 85.71428571428571 50.0 25.0 85.71428571428571 50.0 50.0 107.14285714285714 0.0 0.0 107.14285714285714 0.0 25.0 107.14285714285714 25.0 0.0 107.14285714285714 25.0 25.0 107.14285714285714 0.0 50.0 107.14285714285714 25.0 50.0 107.14285714285714 50.0 0.0 107.14285714285714 50.0 25.0 107.14285714285714 50.0 50.0 128.57142857142856 0.0 0.0 128.57142857142856 0.0 25.0 128.57142857142856 25.0 0.0 128.57142857142856 25.0 25.0 128.57142857142856 0.0 50.0 128.57142857142856 25.0 50.0 128.57142857142856 50.0 0.0 128.57142857142856 50.0 25.0 128.57142857142856 50.0 50.0 150.0 0.0 0.0 150.0 0.0 25.0 150.0 25.0 0.0 150.0 25.0 25.0 150.0 0.0 50.0 150.0 25.0 50.0 150.0 50.0 0.0 150.0 50.0 25.0 150.0 50.0 50.0 </DataArray>
      </Points>
      <PointData>
        <DataArray Name="delta" NumberOfComponents="3" type="Float32" format="ascii">0.0 0.0 0.0 0.0 0.0 0.0 0.0 0.0 0.0 0.0 0.0 0.0 0.0 0.0 0.0 0.0 0.0 0.0 0.0 0.0 0.0 0.0 0.0 0.0 0.0 0.0 0.0 0.0 0.0 0.0 0.0 0.0 0.0 0.0 0.0 0.0 0.0 0.0 0.0 0.0 0.0 0.0 0.0 0.0 0.0 0.0 0.0 0.0 0.0 0.0 0.0 0.0 0.0 0.0 0.0 0.0 0.0 0.0 0.0 0.0 0.0 0.0 0.0 0.0 0.0 0.0 0.0 0.0 0.0 0.0 0.0 0.0 0.0 0.0 0.0 0.0 0.0 0.0 0.0 0.0 0.0 0.0 0.0 0.0 0.0 0.0 0.0 0.0 0.0 0.0 0.0 0.0 0.0 0.0 0.0 0.0 0.0 0.0 0.0 0.0 0.0 0.0 0.0 0.0 0.0 0.0 0.0 0.0 0.0 0.0 0.0 0.0 0.0 0.0 0.0 0.0 0.0 0.0 0.0 0.0 0.0 0.0 0.0 0.0 0.0 0.0 0.0 0.0 0.0 0.0 0.0 0.0 0.0 0.0 0.0 0.0 0.0 0.0 0.0 0.0 0.0 0.0 0.0 0.0 0.0 0.0 0.0 0.0 0.0 0.0 0.0 0.0 0.0 0.0 0.0 0.0 0.0 0.0 0.0 0.0 0.0 0.0 0.0 0.0 0.0 0.0 0.0 0.0 0.0 0.0 0.0 0.0 0.0 0.0 0.0 0.0 0.0 0.0 0.0 0.0 0.0 0.0 0.0 0.0 0.0 0.0 0.0 0.0 0.0 0.0 0.0 0.0 0.0 0.0 0.0 0.0 0.0 0.0 0.0 0.0 0.0 0.0 0.0 0.0 0.0 0.0 0.0 0.0 0.0 0.0 0.0 0.0 0.0 0.0 0.0 0.0 </DataArray>
        <DataArray Name="fixedX" type="Float32" format="ascii">0 0 0 0 0 0 0 0 0 0 0 0 0 0 0 0 0 0 0 0 0 0 0 0 0 0 0 0 0 0 0 0 0 0 0 0 0 0 0 0 0 0 0 0 0 0 0 0 0 0 0 0 0 0 0 0 0 0 0 0 0 0 0 0 0 0 0 0 0 0 0 0 </DataArray>
        <DataArray Name="fixedY" type="Float32" format="ascii">0 0 0 0 0 0 0 0 0 0 0 0 0 0 0 0 0 0 0 0 0 0 0 0 0 0 0 0 0 0 0 0 0 0 0 0 0 0 0 0 0 0 0 0 0 0 0 0 0 0 0 0 0 0 0 0 0 0 0 0 0 0 0 0 0 0 0 0 0 0 0 0 </DataArray>
        <DataArray Name="fixedZ" type="Float32" format="ascii">0 0 0 0 0 0 0 0 0 0 0 0 0 0 0 0 0 0 0 0 0 0 0 0 0 0 0 0 0 0 0 0 0 0 0 0 0 0 0 0 0 0 0 0 0 0 0 0 0 0 0 0 0 0 0 0 0 0 0 0 0 0 0 0 0 0 0 0 0 0 0 0 </DataArray>
      </PointData>
      <Cells>
        <DataArray Name="connectivity" type="Int32">4 0 5 3 7 4 5 3 7 5 6 3 0 1 5 6 0 2 1 6 0 3 2 6 7 3 6 9 11 7 6 9 11 6 10 9 3 2 6 10 3 8 2 10 3 9 8 10 12 4 13 7 15 12 13 7 15 13 14 7 4 5 13 14 4 6 5 14 4 7 6 14 15 7 14 11 17 15 14 11 17 14 16 11 7 6 14 16 7 10 6 16 7 11 10 16 5 1 20 2 6 5 20 2 6 20 21 2 1 18 20 21 1 19 18 21 1 2 19 21 6 2 21 8 10 6 21 8 10 21 23 8 2 19 21 23 2 22 19 23 2 8 22 23 13 5 24 6 14 13 24 6 14 24 25 6 5 20 24 25 5 21 20 25 5 6 21 25 14 6 25 10 16 14 25 10 16 25 26 10 6 21 25 26 6 23 21 26 6 10 23 26 20 18 29 19 21 20 29 19 21 29 30 19 18 27 29 30 18 28 27 30 18 19 28 30 21 19 30 22 23 21 30 22 23 30 32 22 19 28 30 32 19 31 28 32 19 22 31 32 24 20 33 21 25 24 33 21 25 33 34 21 20 29 33 34 20 30 29 34 20 21 30 34 25 21 34 23 26 25 34 23 26 34 35 23 21 30 34 35 21 32 30 35 21 23 32 35 29 27 38 28 30 29 38 28 30 38 39 28 27 36 38 39 27 37 36 39 27 28 37 39 30 28 39 31 32 30 39 31 32 39 41 31 28 37 39 41 28 40 37 41 28 31 40 41 33 29 42 30 34 33 42 30 34 42 43 30 29 38 42 43 29 39 38 43 29 30 39 43 34 30 43 32 35 34 43 32 35 43 44 32 30 39 43 44 30 41 39 44 30 32 41 44 38 36 47 37 39 38 47 37 39 47 48 37 36 45 47 48 36 46 45 48 36 37 46 48 39 37 48 40 41 39 48 40 41 48 50 40 37 46 48 50 37 49 46 50 37 40 49 50 42 38 51 39 43 42 51 39 43 51 52 39 38 47 51 52 38 48 47 52 38 39 48 52 43 39 52 41 44 43 52 41 44 52 53 41 39 48 52 53 39 50 48 53 39 41 50 53 47 45 56 46 48 47 56 46 48 56 57 46 45 54 56 57 45 55 54 57 45 46 55 57 48 46 57 49 50 48 57 49 50 57 59 49 46 55 57 59 46 58 55 59 46 49 58 59 51 47 60 48 52 51 60 48 52 60 61 48 47 56 60 61 47 57 56 61 47 48 57 61 52 48 61 50 53 52 61 50 53 61 62 50 48 57 61 62 48 59 57 62 48 50 59 62 56 54 65 55 57 56 65 55 57 65 66 55 54 63 65 66 54 64 63 66 54 55 64 66 57 55 66 58 59 57 66 58 59 66 68 58 55 64 66 68 55 67 64 68 55 58 67 68 60 56 69 57 61 60 69 57 61 69 70 57 56 65 69 70 56 66 65 70 56 57 66 70 61 57 70 59 62 61 70 59 62 70 71 59 57 66 70 71 57 68 66 71 57 59 68 71 </DataArray>
        <DataArray Name="offsets" type="Int32">4 8 12 16 20 24 28 32 36 40 44 48 52 56 60 64 68 72 76 80 84 88 92 96 100 104 108 112 116 120 124 128 132 136 140 144 148 152 156 160 164 168 172 176 180 184 188 192 196 200 204 208 212 216 220 224 228 232 236 240 244 248 252 256 260 264 268 272 276 280 284 288 292 296 300 304 308 312 316 320 324 328 332 336 340 344 348 352 356 360 364 368 372 376 380 384 388 392 396 400 404 408 412 416 420 424 428 432 436 440 444 448 452 456 460 464 468 472 476 480 484 488 492 496 500 504 508 512 516 520 524 528 532 536 540 544 548 552 556 560 564 568 572 576 580 584 588 592 596 600 604 608 612 616 620 624 628 632 636 640 644 648 652 656 660 664 668 672 </DataArray>
        <DataArray Name="types" type="Int32">10 10 10 10 10 10 10 10 10 10 10 10 10 10 10 10 10 10 10 10 10 10 10 10 10 10 10 10 10 10 10 10 10 10 10 10 10 10 10 10 10 10 10 10 10 10 10 10 10 10 10 10 10 10 10 10 10 10 10 10 10 10 10 10 10 10 10 10 10 10 10 10 10 10 10 10 10 10 10 10 10 10 10 10 10 10 10 10 10 10 10 10 10 10 10 10 10 10 10 10 10 10 10 10 10 10 10 10 10 10 10 10 10 10 10 10 10 10 10 10 10 10 10 10 10 10 10 10 10 10 10 10 10 10 10 10 10 10 10 10 10 10 10 10 10 10 10 10 10 10 10 10 10 10 10 10 10 10 10 10 10 10 10 10 10 10 10 10 </DataArray>
      </Cells>
    </Piece>
  </UnstructuredGrid>
</VTKFile>