<?xml version='1.0' encoding='utf-8'?>
<VTKFile byte_order="LittleEndian" type="UnstructuredGrid" version="0.1">
  <UnstructuredGrid>
    <Piece NumberOfCells="810" NumberOfPoints="256">
      <Points>
        <DataArray NumberOfComponents="3" format="ascii" type="Float32">0.0 0.0 0.0 20.0 0.0 0.0 20.0 0.0 16.666666666666668 0.0 0.0 16.666666666666668 0.0 16.666666666666668 0.0 20.0 16.666666666666668 0.0 20.0 16.666666666666668 16.666666666666668 0.0 16.666666666666668 16.666666666666668 20.0 0.0 33.333333333333336 0.0 0.0 33.333333333333336 20.0 16.666666666666668 33.333333333333336 0.0 16.666666666666668 33.333333333333336 20.0 0.0 50.0 0.0 0.0 50.0 20.0 16.666666666666668 50.0 0.0 16.666666666666668 50.0 0.0 33.333333333333336 0.0 20.0 33.333333333333336 0.0 20.0 33.333333333333336 16.666666666666668 0.0 33.333333333333336 16.666666666666668 20.0 33.333333333333336 33.333333333333336 0.0 33.333333333333336 33.333333333333336 20.0 33.333333333333336 50.0 0.0 33.333333333333336 50.0 0.0 50.0 0.0 20.0 50.0 0.0 20.0 50.0 16.666666666666668 0.0 50.0 16.666666666666668 20.0 50.0 33.333333333333336 0.0 50.0 33.333333333333336 20.0 50.0 50.0 0.0 50.0 50.0 40.0 0.0 0.0 40.0 0.0 16.666666666666668 40.0 16.666666666666668 0.0 40.0 16.666666666666668 16.666666666666668 40.0 0.0 33.333333333333336 40.0 16.666666666666668 33.333333333333336 40.0 0.0 50.0 40.0 16.666666666666668 50.0 40.0 33.333333333333336 0.0 40.0 33.333333333333336 16.666666666666668 40.0 33.333333333333336 33.333333333333336 40.0 33.333333333333336 50.0 40.0 50.0 0.0 40.0 50.0 16.666666666666668 40.0 50.0 33.333333333333336 40.0 50.0 50.0 60.0 0.0 0.0 60.0 0.0 16.666666666666668 60.0 16.666666666666668 0.0 60.0 16.666666666666668 16.666666666666668 60.0 0.0 33.333333333333336 60.0 16.666666666666668 33.333333333333336 60.0 0.0 50.0 60.0 16.666666666666668 50.0 60.0 33.333333333333336 0.0 60.0 33.333333333333336 16.666666666666668 60.0 33.333333333333336 33.333333333333336 60.0 33.333333333333336 50.0 60.0 50.0 0.0 60.0 50.0 16.666666666666668 60.0 50.0 33.333333333333336 60.0 50.0 50.0 80.0 0.0 0.0 80.0 0.0 16.666666666666668 80.0 16.666666666666668 0.0 80.0 16.666666666666668 16.666666666666668 80.0 0.0 33.333333333333336 80.0 16.666666666666668 33.333333333333336 80.0 0.0 50.0 80.0 16.666666666666668 50.0 80.0 33.333333333333336 0.0 80.0 33.333333333333336 16.666666666666668 80.0 33.333333333333336 33.333333333333336 80.0 33.333333333333336 50.0 80.0 50.0 0.0 80.0 50.0 16.666666666666668 80.0 50.0 33.333333333333336 80.0 50.0 50.0 100.0 0.0 0.0 100.0 0.0 16.666666666666668 100.0 16.666666666666668 0.0 100.0 16.666666666666668 16.666666666666668 100.0 0.0 33.333333333333336 100.0 16.666666666666668 33.333333333333336 100.0 0.0 50.0 100.0 16.666666666666668 50.0 100.0 33.333333333333336 0.0 100.0 33.333333333333336 16.666666666666668 100.0 33.333333333333336 33.333333333333336 100.0 33.333333333333336 50.0 100.0 50.0 0.0 100.0 50.0 16.666666666666668 100.0 50.0 33.333333333333336 100.0 50.0 50.0 120.0 0.0 0.0 120.0 0.0 16.666666666666668 120.0 16.666666666666668 0.0 120.0 16.666666666666668 16.666666666666668 120.0 0.0 33.333333333333336 120.0 16.666666666666668 33.333333333333336 120.0 0.0 50.0 120.0 16.666666666666668 50.0 120.0 33.333333333333336 0.0 120.0 33.333333333333336 16.666666666666668 120.0 33.333333333333336 33.333333333333336 120.0 33.333333333333336 50.0 120.0 50.0 0.0 120.0 50.0 16.666666666666668 120.0 50.0 33.333333333333336 120.0 50.0 50.0 140.0 0.0 0.0 140.0 0.0 16.666666666666668 140.0 16.666666666666668 0.0 140.0 16.666666666666668 16.666666666666668 140.0 0.0 33.333333333333336 140.0 16.666666666666668 33.333333333333336 140.0 0.0 50.0 140.0 16.666666666666668 50.0 140.0 33.333333333333336 0.0 140.0 33.333333333333336 16.666666666666668 140.0 33.333333333333336 33.333333333333336 140.0 33.333333333333336 50.0 140.0 50.0 0.0 140.0 50.0 16.666666666666668 140.0 50.0 33.333333333333336 140.0 50.0 50.0 160.0 0.0 0.0 160.0 0.0 16.666666666666668 160.0 16.666666666666668 0.0 160.0 16.666666666666668 16.666666666666668 160.0 0.0 33.333333333333336 160.0 16.666666666666668 33.333333333333336 160.0 0.0 50.0 160.0 16.666666666666668 50.0 160.0 33.333333333333336 0.0 160.0 33.333333333333336 16.666666666666668 160.0 33.333333333333336 33.333333333333336 160.0 33.333333333333336 50.0 160.0 50.0 0.0 160.0 50.0 16.666666666666668 160.0 50.0 33.333333333333336 160.0 50.0 50.0 180.0 0.0 0.0 180.0 0.0 16.666666666666668 180.0 16.666666666666668 0.0 180.0 16.666666666666668 16.666666666666668 180.0 0.0 33.333333333333336 180.0 16.666666666666668 33.333333333333336 180.0 0.0 50.0 180.0 16.666666666666668 50.0 180.0 33.333333333333336 0.0 180.0 33.333333333333336 16.666666666666668 180.0 33.333333333333336 33.333333333333336 180.0 33.333333333333336 50.0 180.0 50.0 0.0 180.0 50.0 16.666666666666668 180.0 50.0 33.333333333333336 180.0 50.0 50.0 200.0 0.0 0.0 200.0 0.0 16.666666666666668 200.0 16.666666666666668 0.0 200.0 16.666666666666668 16.666666666666668 200.0 0.0 33.333333333333336 200.0 16.666666666666668 33.333333333333336 200.0 0.0 50.0 200.0 16.666666666666668 50.0 200.0 33.333333333333336 0.0 200.0 33.333333333333336 16.666666666666668 200.0 33.333333333333336 33.333333333333336 200.0 33.333333333333336 50.0 200.0 50.0 0.0 200.0 50.0 16.666666666666668 200.0 50.0 33.333333333333336 200.0 50.0 50.0 220.0 0.0 0.0 220.0 0.0 16.666666666666668 220.0 16.666666666666668 0.0 220.0 16.666666666666668 16.666666666666668 220.0 0.0 33.333333333333336 220.0 16.666666666666668 33.333333333333336 220.0 0.0 50.0 220.0 16.666666666666668 50.0 220.0 33.333333333333336 0.0 220.0 33.333333333333336 16.666666666666668 220.0 33.333333333333336 33.333333333333336 220.0 33.333333333333336 50.0 220.0 50.0 0.0 220.0 50.0 16.666666666666668 220.0 50.0 33.333333333333336 220.0 50.0 50.0 240.0 0.0 0.0 240.0 0.0 16.666666666666668 240.0 16.666666666666668 0.0 240.0 16.666666666666668 16.666666666666668 240.0 0.0 33.333333333333336 240.0 16.666666666666668 33.333333333333336 240.0 0.0 50.0 240.0 16.666666666666668 50.0 240.0 33.333333333333336 0.0 240.0 33.333333333333336 16.666666666666668 240.0 33.333333333333336 33.333333333333336 240.0 33.333333333333336 50.0 240.0 50.0 0.0 240.0 50.0 16.666666666666668 240.0 50.0 33.333333333333336 240.0 50.0 50.0 260.0 0.0 0.0 260.0 0.0 16.666666666666668 260.0 16.666666666666668 0.0 260.0 16.666666666666668 16.666666666666668 260.0 0.0 33.333333333333336 260.0 16.666666666666668 33.333333333333336 260.0 0.0 50.0 260.0 16.666666666666668 50.0 260.0 33.333333333333336 0.0 260.0 33.333333333333336 16.666666666666668 260.0 33.333333333333336 33.333333333333336 260.0 33.333333333333336 50.0 260.0 50.0 0.0 260.0 50.0 16.666666666666668 260.0 50.0 33.333333333333336 260.0 50.0 50.0 280.0 0.0 0.0 280.0 0.0 16.666666666666668 280.0 16.666666666666668 0.0 280.0 16.666666666666668 16.666666666666668 280.0 0.0 33.333333333333336 280.0 16.666666666666668 33.333333333333336 280.0 0.0 50.0 280.0 16.666666666666668 50.0 280.0 33.333333333333336 0.0 280.0 33.333333333333336 16.666666666666668 280.0 33.333333333333336 33.333333333333336 280.0 33.333333333333336 50.0 280.0 50.0 0.0 280.0 50.0 16.666666666666668 280.0 50.0 33.333333333333336 280.0 50.0 50.0 300.0 0.0 0.0 300.0 0.0 16.666666666666668 300.0 16.666666666666668 0.0 300.0 16.666666666666668 16.666666666666668 300.0 0.0 33.333333333333336 300.0 16.666666666666668 33.333333333333336 300.0 0.0 50.0 300.0 16.666666666666668 50.0 300.0 33.333333333333336 0.0 300.0 33.333333333333336 16.666666666666668 300.0 33.333333333333336 33.333333333333336 300.0 33.333333333333336 50.0 300.0 50.0 0.0 300.0 50.0 16.666666666666668 300.0 50.0 33.333333333333336 300.0 50.0 50.0 </DataArray>
      </Points>
      <PointData Vectors="delta">
        <DataArray Name="delta" NumberOfComponents="3" format="ascii" type="Float32">-1.456889627673837e-13 2.3892777856061777e-14 -1.033194947550739e-13 7.919418350088382e-11 4.834493568062331e-13 2.899990148896831e-11 -1.2335260112776054e-11 1.9149812928966236e-12 -3.192016884683623e-12 3.6081554385394695e-14 -2.4116003470893818e-14 2.498539278884558e-14 -2.7316781015715287e-15 6.304616909667431e-16 -5.547327723793414e-15 -2.2236344068855308e-14 1.1290779987636186e-12 5.9366882098611315e-12 -1.1476378912020097e-11 8.249750403499895e-13 -1.2134640390618728e-11 8.362282333136474e-14 -5.99701357313999e-14 1.0620485443972872e-13 -1.2475379342991543e-11 -6.026154648342711e-13 -3.805360651874759e-12 3.0665355686207603e-14 -4.456597124795387e-15 1.870124569304366e-14 2.9369780948641042e-12 -1.1496167320476115e-13 1.3111845660454194e-12 -1.7195255128839437e-14 1.2632736032723863e-14 -1.5807337832856906e-14 2.3908850482265346e-12 -1.243914950934323e-12 -8.476900940656106e-13 -2.476262400976059e-15 2.93619678649221e-15 -1.1032052078514017e-15 3.6364608679837116e-12 -6.842434112992099e-13 2.78955648930234e-12 -1.0096646100365871e-14 6.709095888936591e-15 -9.816315043552189e-15 -3.4016495530768004e-16 -2.02700625935854e-16 -4.4339741894047854e-16 3.1514976985996313e-13 -2.011676869403485e-13 4.808890623036289e-13 6.46015945745252e-13 -7.339172560042824e-13 -8.526074281459605e-13 2.5386904723786394e-15 -3.0969983420129406e-15 1.0491948350975591e-14 1.992357665136857e-12 2.447617893541615e-13 3.5043863571522944e-12 -1.8071228923599962e-14 1.3309504428681868e-14 -3.1072457758915303e-14 -1.4181678442445883e-12 9.03023947801764e-14 -3.36685698737037e-13 4.082416246511547e-15 -3.121157883252689e-15 3.642049345997772e-15 4.285031685614175e-16 -1.936374441799514e-16 2.3401901696895554e-16 5.736443760839601e-13 -1.0988923378329371e-14 2.3202953790822677e-13 -3.2365559285383404e-15 -7.63939104656829e-14 1.754687689541766e-13 6.281957797740694e-16 -7.446719073898883e-16 1.5006779472320627e-15 1.6856201842795905e-13 1.5122672331566588e-13 3.1752346326202887e-14 5.461922942340885e-16 -2.620769643172808e-16 -7.593223267108587e-16 -3.2008431915177875e-13 -2.088512093224722e-13 -1.4855515810730277e-12 2.4182636374840083e-15 -2.7238627518006535e-15 6.162916030428658e-15 -2.2686234529353986e-10 6.458761080497177e-12 -8.444695880614358e-11 3.244239838407252e-11 -4.98761472663687e-12 8.687064060353488e-12 1.2295810158416553e-12 -8.164317865812303e-12 -1.3441697386983517e-11 2.9293429050885455e-11 -2.0687089412947803e-13 3.068675798398077e-11 4.097398106883589e-11 5.28755029523012e-13 1.285618518322728e-11 -7.713313236012e-12 5.897482920375276e-13 -3.257508382107796e-12 -7.045580084166943e-12 3.5710700280700393e-12 3.081237915655975e-12 -1.0618946404543692e-11 1.0962907260246336e-12 -7.202676728957977e-12 -6.213217039406065e-13 -1.2602265454996759e-14 -2.617095507698629e-13 -1.5331884674746115e-12 2.1840160656543502e-12 1.425722959288156e-12 -4.684947157004191e-12 -1.5427054436452389e-12 -8.474870352138415e-12 4.629175382613276e-12 -7.666932276257294e-13 2.7299115785749944e-12 2.374715412046993e-12 -3.86827942741661e-13 3.9670957517060266e-13 6.570309749311818e-13 -1.039520081661853e-12 1.1043761637823297e-12 1.700382467057783e-12 -1.0851260187588994e-12 6.310816248747896e-13 2.5605683814648064e-13 -1.2067435192540387e-12 7.055586277115886e-12 5.630614108983027e-10 -1.9948196173333996e-11 2.0885356411697704e-10 -7.355707717281339e-11 1.2131341421816564e-11 -1.8448876643674813e-11 -3.832401782432772e-12 2.2218007179879864e-11 3.1513701949907565e-11 -7.074227009673202e-11 -9.403564144761252e-13 -7.311085880221976e-11 -1.1970964113210753e-10 -1.5520636028051155e-12 -3.658593193797925e-11 2.033478385954081e-11 -2.743471078216425e-12 8.056646189118772e-12 1.8876266500924662e-11 -9.98942992582736e-12 -6.237428144235055e-12 3.10925603253021e-11 -4.757623901202063e-12 2.4419698030589848e-11 3.479637945776213e-12 -3.738244674813459e-12 1.6623387638904404e-12 5.34119576192511e-12 -6.53915860529178e-12 -8.404297877893324e-13 1.2795527771943961e-11 1.028278705682423e-12 2.1447776607364567e-11 -8.987104809467738e-12 8.969201587439181e-13 -4.249507401585379e-13 9.01779318508115e-12 -4.1574155155322167e-13 2.0537468485200043e-12 5.870072510842014e-13 -8.911723869477943e-13 3.68572503220759e-12 5.206769642745876e-12 3.168497729196811e-13 -2.371561998505365e-12 -2.082883080104433e-12 -5.918699456391624e-12 -8.631726761665317e-13 -1.3640615736821923e-09 4.8631337767567555e-11 -5.032304904036913e-10 1.609667180218937e-10 -3.205347595054141e-11 4.0231977554092843e-11 1.3667139421172443e-11 -5.72451061441686e-11 -7.308667802030355e-11 1.7400325556416082e-10 -8.687881667511143e-14 1.806250252505313e-10 3.442786445899845e-10 1.247938423191102e-12 1.0788752324843206e-10 -4.619496090052072e-11 4.647384404835575e-12 -1.4191499151054635e-11 -4.618968064859074e-11 2.7606153643079568e-11 3.008499937942742e-11 -8.789459580605796e-11 6.544504557058097e-12 -5.5930291940810195e-11 -2.164871076427021e-12 -3.5693463996154013e-12 8.02069551465327e-14 -6.452462913402858e-12 1.0738323284156019e-11 1.1253337721425838e-11 -2.4927223853134245e-11 -1.3870273293711037e-11 -4.766358854711458e-11 3.49828807751636e-11 -8.013743366481184e-12 2.650180698028103e-11 3.562508103761979e-11 -5.012929335273261e-12 5.806890568737414e-12 7.064338736412618e-12 -1.1694864025834237e-11 1.7471015637366825e-11 2.4122034579837325e-11 -9.639939252934613e-12 2.151614992882408e-12 -6.617025762823104e-13 -2.0330289033722862e-11 6.594017717034777e-11 3.2962527704032173e-09 -1.2512190863513708e-10 1.216298519592285e-09 -3.3811308464056327e-10 7.620796552093959e-11 -6.747463767737196e-11 -2.0101429348099478e-11 1.303590551269467e-10 1.8485462563566262e-10 -4.136948960160985e-10 -9.362133751769794e-12 -4.1864641307409415e-10 -9.803649863493618e-10 -1.2347690342860376e-11 -2.947558007818193e-10 1.3005286428599398e-10 -2.6241146234892327e-11 4.060450493805387e-11 1.1156885075778476e-10 -7.650798137546173e-11 -4.382021455828488e-11 2.596657189489599e-10 -4.6605279353950684e-11 2.1762714944525295e-10 3.081348490957754e-11 -4.1691568070978915e-11 1.6526164553313018e-11 4.0801683661139614e-11 -4.57274273823163e-11 8.683583716801494e-12 8.333431202195848e-11 -1.1125459155555798e-11 1.3240538296483202e-10 -4.415688142413196e-11 7.160055972948118e-13 3.4051314898106346e-11 1.3626595544619237e-10 -1.0701267333667064e-11 2.7373856960835704e-11 1.639743139122279e-11 -2.582447190531679e-11 6.017039272300602e-11 8.620576170320093e-11 -1.2227453583051804e-11 -1.7720114187479774e-11 -1.635717649785298e-11 -9.011980319030861e-11 9.364594076567607e-11 -7.951518779196854e-09 2.784543391392871e-10 -2.9012334186442798e-09 6.903832452264441e-10 -2.1884317964261258e-10 1.4619994069409626e-10 9.990663175901997e-11 -3.489077693926074e-10 -4.125449959197242e-10 1.0396310278456562e-09 -1.8073149310281798e-11 1.0722695872780219e-09 2.794255405719475e-09 -8.375713818948695e-12 8.904275293281392e-10 -2.5764121419339554e-10 2.2556307813976055e-11 -2.959882285689186e-11 -2.1337443626450138e-10 2.0289350111236813e-10 3.197135261548622e-10 -7.144650050304054e-10 1.938494917912653e-11 -3.9617109829896353e-10 2.3733753427441814e-11 -9.378420850046898e-11 2.3985978686939243e-11 8.726701555712466e-13 3.2026636258686424e-11 1.1996824397285498e-10 -1.0572999576530318e-10 -1.519094086605679e-10 -2.463319174980925e-10 3.056659630889517e-10 -9.728761567518038e-11 3.184438059345387e-10 5.312097141122385e-10 -6.316121593325948e-11 9.380775138226989e-11 9.377825307675815e-11 -1.4894316478998594e-10 2.528577934160984e-10 3.6231107156659873e-10 -1.12950986595047e-10 1.3101139166306296e-12 -1.89138615687753e-11 -3.328733548384569e-10 7.647566981129485e-10 1.9267699194035307e-08 -7.524041342065461e-10 7.0225411989863485e-09 -1.2610928420875459e-09 4.78540380473191e-10 -3.7650306432226055e-11 -3.291089942314566e-11 7.151229851029631e-10 1.132514114226593e-09 -2.382597933175193e-09 -1.0888073778235033e-10 -2.307892407533872e-09 -7.876422833509657e-09 -1.3676800798573467e-10 -2.3229630561068145e-09 8.9210455014897e-10 -2.768110584930542e-10 2.448770957992827e-10 3.5635056108888384e-10 -5.800716886890178e-10 -2.1434867944201694e-10 2.1889817831484232e-09 -5.053278182827965e-10 2.0561107356161254e-09 3.268081591884782e-10 -5.267669173800618e-10 1.9174370889296254e-10 3.789124875299116e-10 -3.962379310063672e-10 2.539980470573576e-10 6.257150835547828e-10 -3.505795728803473e-10 8.914979784880299e-10 -3.153295970287568e-11 -1.3350253784680854e-10 7.691991946027919e-10 2.0441927236463745e-09 -1.939412319292553e-10 3.9121768130974214e-10 3.136366943301168e-10 -4.700867276863456e-10 9.38720358271934e-10 1.3949941599647254e-09 -3.0980185360544907e-10 -1.1097797893861618e-10 -8.635131394050611e-11 -1.4111740740335865e-09 2.0724645223392866e-09 -4.660366499740648e-08 1.3209224581955984e-09 -1.638278695790037e-08 2.107264335184839e-09 -1.618132256575149e-09 2.6269581926941663e-10 8.145954871420693e-10 -2.2590438368894955e-09 -2.265508539623325e-09 6.349747474522572e-09 -3.8077248458614e-10 6.489815860022597e-09 2.2336302465234672e-08 -2.9209138333596194e-10 7.561874642983077e-09 -1.1510547793394306e-09 -8.96752320118659e-11 4.3859787325559625e-10 2.5013432292616693e-10 1.4082500023129115e-09 3.921019027157816e-09 -5.6326822638084266e-09 -4.316983682119401e-10 -2.3240575863782994e-09 6.940666420742594e-10 -1.6614496427130665e-09 4.846205086530301e-10 6.810499430141842e-10 -3.41184098214388e-10 1.6006153919518329e-09 6.671201750044928e-11 -2.039734210334493e-09 -7.374369359063686e-10 3.248412205384634e-09 -1.3925433984637282e-09 4.3514125148624085e-09 7.925206070199637e-09 -8.813097303296659e-10 1.4396656816335111e-09 1.4838237257707895e-09 -2.1490290127290884e-09 3.796035876868639e-09 5.6759568700387714e-09 -1.643590038384507e-09 5.277798997168911e-11 2.0456600648456192e-10 -5.358763338910713e-09 1.0022263003908044e-08 1.1433142576741638e-07 -3.905916491735032e-09 3.9591726286037355e-08 -1.3479239719096248e-09 2.477237603461258e-09 3.1020489232375984e-09 1.5083034935488853e-09 3.569388890092827e-09 7.822948084174973e-09 -1.3021932849601987e-08 -1.6622451160782826e-09 -1.0941054369832294e-08 -6.202634899404362e-08 -1.963231180906592e-09 -1.8087454454869608e-08 6.927582388123082e-09 -3.2123998354662015e-09 3.0316663967565415e-09 -4.021240305022176e-09 -5.301201203580833e-09 1.3765195658563658e-09 1.8782376012883014e-08 -6.0912121743446496e-09 2.2323329448901525e-08 4.143025482048143e-09 -7.352903463108776e-09 2.608845136006388e-09 4.1966536777648705e-09 -4.749852091128543e-09 4.422604957642548e-09 6.030895831200169e-09 -6.829635289591977e-09 7.439988727360845e-09 4.200295430969952e-09 -4.32434516084409e-09 1.2371842646080588e-08 3.055320318387438e-08 -3.1083987772749578e-09 5.786154622310314e-09 6.07369013446329e-09 -7.97188063721551e-09 1.457298338061606e-08 2.2570706406459946e-08 -6.086128536473456e-09 1.0142607249549916e-09 2.2033801660056028e-09 -2.2034957516303746e-08 3.399529708109487e-08 -2.799495418860342e-07 -5.564920303107734e-10 -8.583040228113144e-08 -4.835797464900122e-09 -1.1675830361375356e-08 9.85065412224123e-10 6.002706957442482e-09 -1.7525968081261966e-08 -1.3347675870392565e-08 4.227014401099257e-08 -6.825371524231758e-09 4.0825427536018884e-08 1.737297404216832e-07 -5.779392450424278e-09 7.076017622612788e-08 4.060714343171054e-10 -6.228845333446407e-09 9.330381214619988e-09 2.2354776243649986e-08 9.347427457889269e-09 6.365362107381542e-08 -3.754929354790766e-08 -1.4730332607675967e-08 -3.106019504722154e-09 1.2488782696593848e-08 -2.6656714328288695e-08 8.255429825502038e-09 1.7349370280014045e-08 -1.2216552119005324e-08 2.62218209281135e-08 1.185725475961771e-08 -2.9892364967748335e-08 1.2432184725988055e-08 4.0552868663923916e-08 -2.516320986864471e-08 6.716040157948585e-08 1.1795492247101166e-07 -1.2359047088522252e-08 2.2508142705866242e-08 2.885918262750659e-08 -3.433205515137929e-08 5.8251624787774314e-08 8.944325579111386e-08 -2.7313248415509237e-08 7.811470442395945e-09 2.6525998915108282e-08 -8.254236434609025e-08 1.2568832086725544e-07 7.114157197295057e-07 -4.965096131607198e-09 2.1248074101463347e-07 5.8894132849603745e-08 -9.475049896224647e-09 3.597151573515153e-08 4.819725742468182e-08 1.8187782474645732e-08 8.457897586820694e-08 -6.312393493771909e-08 -3.103193998884981e-08 -1.9021757613244265e-08 -4.6549067650879166e-07 -3.488691665702445e-08 -1.3127479950147416e-07 6.026523800526021e-08 -3.8275575972879675e-08 8.644950970721096e-08 -1.1693706287434454e-07 -5.629180907852671e-08 1.1030694362743288e-07 1.541776548559865e-07 -8.216346817159585e-08 3.2755737778966056e-07 5.5331642401516626e-08 -1.0773477884272815e-07 4.09463256526346e-08 5.393766961052312e-08 -8.271285037375943e-08 5.833665403253414e-08 7.662483025323804e-08 -1.173555271540008e-07 9.025665686305442e-08 9.748872533308372e-08 -1.332009402999993e-07 1.730201833278586e-07 4.5354386698512877e-07 -3.973208585405373e-08 9.627813269331394e-08 1.3975791549931563e-07 -1.413447094217931e-07 2.288399473486617e-07 3.45131045084512e-07 -1.1243273870696972e-07 9.97213434601838e-08 1.4645349103511264e-07 -3.323769649403772e-07 4.744517195676197e-07 -1.781842362614302e-06 -1.4686214534186454e-07 -4.0570503690725407e-07 -2.494418331854759e-07 -6.478543436899278e-08 1.6861539774836546e-07 -1.160056593462496e-08 -2.0067831054937078e-07 -1.6456374932299887e-07 4.0724279733985013e-07 -1.1494504009695511e-07 2.83779148676736e-07 1.2478902187987674e-06 -9.921338362214357e-08 7.739758458850374e-07 1.3949267285688158e-07 -1.6415388460160023e-07 1.2637967022638381e-07 2.8424885707711785e-07 -3.766537052255824e-08 1.2289640335178339e-06 -1.2811546578658883e-07 -3.1764984248535485e-07 4.4682598760753834e-07 1.746616456408946e-07 -4.044097599306605e-07 2.102937374416027e-07 3.886044071723058e-07 -2.8168024749412404e-07 5.348627696926152e-07 2.2310683672834352e-07 -3.768523467405548e-07 6.18061486420794e-07 4.548172683640477e-07 -4.4125370996448017e-07 1.4826194181045536e-06 1.7363878956608634e-06 -7.612019961950971e-08 4.650755507168587e-07 7.33251659616644e-07 -6.21057109830367e-07 8.484101433428185e-07 1.2693925725058138e-06 -4.697375686765838e-07 3.9259060473094715e-07 1.386305724999494e-06 -1.0939304869028165e-06 1.0977018800740857e-06 4.450520554628087e-06 2.390197359844074e-07 2.0106957868644626e-06 9.89239182398543e-07 -4.260953627775387e-07 6.247551668327203e-07 9.831478419713653e-07 6.158551748636974e-07 2.1227745651880335e-06 -5.681052895444302e-07 -6.275166448066409e-07 8.362128940165773e-07 -3.381069126394302e-06 -1.0039070819827524e-06 -1.5570205635077378e-07 6.317455688356704e-07 -6.237553472039506e-07 2.2083511335826036e-06 -2.0553722127048604e-06 5.575763527227736e-07 5.0269367028463854e-06 9.800592805714061e-07 -1.3454935076815787e-06 6.110039261547586e-06 5.354514578899229e-07 -1.4564778025401293e-06 8.4179164699654e-07 8.988700900605124e-07 -2.102286875546423e-06 -1.8966814341088596e-07 1.4007511222558653e-06 -2.0035986539385738e-06 1.1786501357544657e-06 1.600441867497168e-06 -2.471991707185234e-06 3.5103487973521133e-06 6.56348803526643e-06 6.177634572569448e-07 2.803959478685572e-06 4.023839805041289e-06 -2.6549703471380813e-06 3.630372251038092e-06 3.3943671387150416e-06 -2.1280910737851603e-06 5.451926408649757e-06 8.259018924429673e-07 -5.573994618592355e-06 9.725087781499733e-06 -9.32885353544559e-06 -3.391932596892032e-06 -6.5278654242018096e-06 -4.8125313840710775e-06 -3.3047693773248374e-06 8.006797898626203e-06 -1.7902993806101732e-06 -3.5560821813622842e-06 -1.7755051318998805e-06 5.189988860294181e-06 -1.8390110437592935e-07 1.0270340122623234e-05 5.764382121748388e-06 3.0425463857222796e-07 1.463128745897552e-05 2.995844955848614e-06 -1.1075713614528088e-06 6.513843119232656e-06 -1.0857041371662773e-06 -6.136113951378391e-06 1.1486561915526338e-05 1.5655510088657247e-06 -7.587237001991378e-08 1.509008936438644e-05 -3.6952333277631145e-06 -4.4929072858359926e-06 1.4463604272055528e-05 4.6313866181581976e-06 -1.9962125511675117e-06 1.888287457544254e-05 2.288394396042262e-06 -3.465059327308408e-06 1.5488327255886095e-05 4.988389630954637e-06 -3.161598598166086e-06 3.379187806101445e-05 2.4646793354751778e-05 1.2876122485082938e-05 2.187657143638868e-05 2.7276552487045386e-05 -6.4286138993508684e-06 4.080319683201091e-06 2.392535500777054e-05 -3.872267882502899e-06 2.5336521611177414e-06 2.754698513202265e-05 -1.2239682122669237e-05 1.4014490251946896e-05 -3.15033022666309e-06 8.67818376920674e-06 9.956382970095792e-05 -1.6141494311721655e-05 1.2703568079675293e-05 6.227650406914038e-05 8.845549109392033e-06 1.7046730375316632e-05 8.495280996842384e-05 -1.2541264338612423e-05 -9.332770489023196e-06 3.4123705293185276e-05 -1.9951732273062424e-05 -1.336775297714485e-05 -1.3053304118253453e-05 -4.825395252511131e-06 -1.0736820940716241e-05 2.7265355740299916e-05 -0.00014263715934131297 0.00010706360779498977 0.0003718403918000472 -9.998593430901462e-05 3.663430279603157e-06 0.00016913974293462878 1.194140160498369e-05 -4.251458861091443e-06 7.680997893098864e-05 -9.356907670163485e-06 -2.741032057593072e-05 2.7230814829974678e-05 1.8937833430684212e-06 -1.9819849895999705e-05 3.469138281424841e-05 -9.264362910050064e-05 -3.877059264907252e-05 0.00015750286255018407 4.305096833676983e-05 9.282696567486114e-05 0.0002599364105277555 -5.384012802622756e-06 -1.7241560251805428e-05 0.00013549181106414153 -1.7892608392360421e-06 -4.515392261664543e-06 0.00015038738716840731 -0.00011259006556855901 -8.340986159311871e-05 0.0002664681189743897 </DataArray>
      </PointData>
      <Cells>