<?xml version='1.0' encoding='utf-8'?>
<VTKFile byte_order="LittleEndian" type="UnstructuredGrid" version="0.1">
  <UnstructuredGrid>
    <Piece NumberOfCells="432" NumberOfPoints="144">
      <Points>
        <DataArray NumberOfComponents="3" format="ascii" type="Float32">0.0 0.0 0.0 18.75 0.0 0.0 18.75 0.0 16.666666666666668 0.0 0.0 16.666666666666668 0.0 16.666666666666668 0.0 18.75 16.666666666666668 0.0 18.75 16.666666666666668 16.666666666666668 0.0 16.666666666666668 16.666666666666668 18.75 0.0 33.333333333333336 0.0 0.0 33.333333333333336 18.75 16.666666666666668 33.333333333333336 0.0 16.666666666666668 33.333333333333336 18.75 0.0 50.0 0.0 0.0 50.0 18.75 16.666666666666668 50.0 0.0 16.666666666666668 50.0 0.0 33.333333333333336 0.0 18.75 33.333333333333336 0.0 18.75 33.333333333333336 16.666666666666668 0.0 33.333333333333336 16.666666666666668 18.75 33.333333333333336 33.333333333333336 0.0 33.333333333333336 33.333333333333336 18.75 33.333333333333336 50.0 0.0 33.333333333333336 50.0 0.0 50.0 0.0 18.75 50.0 0.0 18.75 50.0 16.666666666666668 0.0 50.0 16.666666666666668 18.75 50.0 33.333333333333336 0.0 50.0 33.333333333333336 18.75 50.0 50.0 0.0 50.0 50.0 37.5 0.0 0.0 37.5 0.0 16.666666666666668 37.5 16.666666666666668 0.0 37.5 16.666666666666668 16.666666666666668 37.5 0.0 33.333333333333336 37.5 16.666666666666668 33.333333333333336 37.5 0.0 50.0 37.5 16.666666666666668 50.0 37.5 33.333333333333336 0.0 37.5 33.333333333333336 16.666666666666668 37.5 33.333333333333336 33.333333333333336 37.5 33.333333333333336 50.0 37.5 50.0 0.0 37.5 50.0 16.666666666666668 37.5 50.0 33.333333333333336 37.5 50.0 50.0 56.25 0.0 0.0 56.25 0.0 16.666666666666668 56.25 16.666666666666668 0.0 56.25 16.666666666666668 16.666666666666668 56.25 0.0 33.333333333333336 56.25 16.666666666666668 33.333333333333336 56.25 0.0 50.0 56.25 16.666666666666668 50.0 56.25 33.333333333333336 0.0 56.25 33.333333333333336 16.666666666666668 56.25 33.333333333333336 33.333333333333336 56.25 33.333333333333336 50.0 56.25 50.0 0.0 56.25 50.0 16.666666666666668 56.25 50.0 33.333333333333336 56.25 50.0 50.0 75.0 0.0 0.0 75.0 0.0 16.666666666666668 75.0 16.666666666666668 0.0 75.0 16.666666666666668 16.666666666666668 75.0 0.0 33.333333333333336 75.0 16.666666666666668 33.333333333333336 75.0 0.0 50.0 75.0 16.666666666666668 50.0 75.0 33.333333333333336 0.0 75.0 33.333333333333336 16.666666666666668 75.0 33.333333333333336 33.333333333333336 75.0 33.333333333333336 50.0 75.0 50.0 0.0 75.0 50.0 16.666666666666668 75.0 50.0 33.333333333333336 75.0 50.0 50.0 93.75 0.0 0.0 93.75 0.0 16.666666666666668 93.75 16.666666666666668 0.0 93.75 16.666666666666668 16.666666666666668 93.75 0.0 33.333333333333336 93.75 16.666666666666668 33.333333333333336 93.75 0.0 50.0 93.75 16.666666666666668 50.0 93.75 33.333333333333336 0.0 93.75 33.333333333333336 16.666666666666668 93.75 33.333333333333336 33.333333333333336 93.75 33.333333333333336 50.0 93.75 50.0 0.0 93.75 50.0 16.666666666666668 93.75 50.0 33.333333333333336 93.75 50.0 50.0 112.5 0.0 0.0 112.5 0.0 16.666666666666668 112.5 16.666666666666668 0.0 112.5 16.666666666666668 16.666666666666668 112.5 0.0 33.333333333333336 112.5 16.666666666666668 33.333333333333336 112.5 0.0 50.0 112.5 16.666666666666668 50.0 112.5 33.333333333333336 0.0 112.5 33.333333333333336 16.666666666666668 112.5 33.333333333333336 33.333333333333336 112.5 33.333333333333336 50.0 112.5 50.0 0.0 112.5 50.0 16.666666666666668 112.5 50.0 33.333333333333336 112.5 50.0 50.0 131.25 0.0 0.0 131.25 0.0 16.666666666666668 131.25 16.666666666666668 0.0 131.25 16.666666666666668 16.666666666666668 131.25 0.0 33.333333333333336 131.25 16.666666666666668 33.333333333333336 131.25 0.0 50.0 131.25 16.666666666666668 50.0 131.25 33.333333333333336 0.0 131.25 33.333333333333336 16.666666666666668 131.25 33.333333333333336 33.333333333333336 131.25 33.333333333333336 50.0 131.25 50.0 0.0 131.25 50.0 16.666666666666668 131.25 50.0 33.333333333333336 131.25 50.0 50.0 150.0 0.0 0.0 150.0 0.0 16.666666666666668 150.0 16.666666666666668 0.0 150.0 16.666666666666668 16.666666666666668 150.0 0.0 33.333333333333336 150.0 16.666666666666668 33.333333333333336 150.0 0.0 50.0 150.0 16.666666666666668 50.0 150.0 33.333333333333336 0.0 150.0 33.333333333333336 16.666666666666668 150.0 33.333333333333336 33.333333333333336 150.0 33.333333333333336 50.0 150.0 50.0 0.0 150.0 50.0 16.666666666666668 150.0 50.0 33.333333333333336 150.0 50.0 50.0 </DataArray>
      </Points>
      <PointData Scalars="fixed" Vectors="delta">
        <DataArray Name="delta" NumberOfComponents="3" format="ascii" type="Float32">-1.4778879423297526e-08 2.7536514658351906e-08 -1.2782716709613836e-08 6.340222717622464e-08 -5.986814800759209e-08 3.4013121391540706e-08 5.9058221195507545e-08 -1.4860238969609995e-08 -3.032769803248851e-08 -3.421067282110807e-08 1.5368946186777967e-08 1.0430692512180918e-08 -5.848349380781696e-10 -4.690533077317321e-09 -2.554150015257239e-09 1.1366967171081095e-08 3.0963025536946344e-08 -6.1298459483241675e-09 -9.89747787119238e-09 5.269289125101511e-09 1.3755946107012922e-08 6.576931279412635e-09 -8.89366695758135e-09 -4.457378452420706e-09 4.7358080511055726e-08 -1.469186433058764e-07 4.619895806147639e-09 -4.790109969151752e-08 6.07211656902553e-08 2.9480811361057744e-09 -1.1674434869544251e-08 4.577138836848879e-08 -6.233181750909636e-09 3.5384102427156052e-09 -9.797415818088731e-09 3.0757796094084257e-09 5.369869762011077e-07 -1.571497611610517e-07 -1.9060409498704302e-07 -3.0019087970215596e-07 1.4641008967122785e-07 3.753693578187353e-08 -6.77671957806963e-08 6.377321811362368e-08 7.539838449265379e-08 7.949783407657319e-08 -9.382926467809999e-08 -1.0164356651640835e-08 4.0814237377962796e-10 -4.5218632100555005e-09 -1.1770418970428199e-09 1.1445078797011193e-08 -1.87553853110345e-08 6.496956726962831e-09 -2.290997104013712e-10 1.102787451503549e-08 -2.0223788552690266e-09 -3.8444417718131355e-09 6.141156990975079e-09 -1.0700871008219498e-09 1.659997120442117e-08 -3.353658806452409e-08 2.316559660417194e-09 1.2473851118866592e-08 -1.556443315550281e-08 7.939804999746832e-09 -6.405162551540793e-08 -2.719020756653884e-08 -7.619539024961331e-09 -9.832615754215684e-08 5.567236093894056e-08 -2.214786546749668e-08 1.2544269388237721e-09 -6.168926407446251e-09 -2.4297010738373237e-08 4.151066638540257e-09 3.5476477509634694e-10 -6.089702392437743e-08 3.8763879007068775e-08 -1.1608817674191971e-08 7.974516439519854e-08 2.2931006123917195e-08 -1.0903239941809495e-09 3.6305778416551305e-08 -1.0447453433644547e-07 2.5342491807716534e-08 -1.491766702982522e-07 -7.031477619812871e-08 -5.282931488512673e-09 -8.601768196979039e-08 6.016313787072925e-07 -1.5739042372172438e-07 2.831482795266921e-07 3.938724260597127e-07 -1.0974835867101736e-07 2.499541628630368e-07 -7.859329436968732e-08 3.944235693698691e-07 -3.306587339399893e-07 -2.888057403063162e-07 -1.2494970358134665e-08 1.6798716716025226e-07 -1.6938838452111457e-08 -1.4090607204628458e-07 -9.430976339570911e-08 5.486369934161737e-08 -4.336239746956504e-08 -2.1674355021391046e-08 -1.476083362409488e-07 4.4035666168821164e-07 -3.836308841135841e-08 -2.00320428047117e-08 -9.573484400761433e-08 4.337117465145419e-08 -1.7635103184686414e-06 4.7229394544651005e-07 6.657309597357181e-07 2.6871669350952865e-07 -2.7348904182464207e-07 -1.7583815758698582e-07 2.431248920983584e-09 -2.701140878751102e-08 -1.4861554073966547e-07 -2.950402189464535e-08 -1.350813453710148e-08 2.2265154327251994e-08 4.4726682501513364e-08 -6.723013709001105e-08 -4.001984234578062e-08 -2.9152481712189716e-07 2.0191059997241893e-08 1.375236482310482e-07 -5.935940156059e-09 -8.184247884580389e-08 -2.1214477652673237e-07 1.3206581034828662e-07 -8.217059614272679e-08 2.1133234247417635e-07 -2.7520041995640186e-07 5.063430093468331e-08 -4.40818251149913e-07 1.8425937366746116e-06 -5.428635924289676e-07 8.120731523639446e-07 2.3203297917929412e-06 -5.593762573402861e-07 4.890034725666968e-07 9.474313602500967e-07 -2.0588150692696017e-07 -1.217401791418016e-07 7.232137629664022e-07 5.187148437635124e-07 -7.515475939282447e-08 -3.6030398740971823e-07 1.8468179424708e-07 1.9963646967816995e-07 5.617140050445343e-07 -1.5809561307976074e-06 2.7721305122246413e-07 1.0652764996657857e-08 5.23817639306636e-07 -4.121959886891907e-08 6.1092018056435735e-06 -1.7717558173890084e-06 -1.8393012423892334e-06 -7.355879966316749e-07 4.5437191577847375e-07 7.252992121502207e-07 9.220863896039524e-07 -2.218426034302696e-07 1.3743284329403118e-07 3.3908866851724044e-09 3.1449807845522815e-07 7.18371273582675e-08 1.6875053042284156e-07 -3.1325469177638775e-07 6.937272453787079e-08 -3.315080624057962e-07 -1.5526765374705844e-07 1.7628094153582408e-07 7.229177775761733e-07 2.847882545851144e-07 -8.21098619679943e-07 8.264043989350866e-07 -9.566256132272089e-08 9.808835694640921e-07 -5.990080268809685e-07 -4.175601120056418e-08 -1.550830380960171e-06 6.1775039552054815e-06 -1.6119039700026088e-06 2.7802981306742065e-06 1.7305714076721326e-07 1.1267774958872917e-05 -1.2238039144239481e-05 -5.8065288992064475e-06 -6.529983532812514e-07 2.27032891195399e-06 5.159431874570849e-07 -3.972561918146202e-06 -3.774955766007476e-06 6.335654146164475e-07 -1.3374242179501359e-06 -1.0220195402452347e-07 -2.666774112626794e-06 4.913306381750175e-06 -4.041416315514391e-06 1.0607808218054322e-07 -1.2279352332484705e-06 -7.702341259856417e-07 -2.4173228480031753e-05 2.3912572473666754e-06 6.540666745434122e-06 2.165178528324016e-06 -3.93888525777002e-06 1.2288900573526584e-06 7.207478208862977e-07 2.1783030670606147e-06 -9.331689460238351e-06 -5.259840543914873e-07 -1.9622552356420452e-06 2.2983855235130127e-06 2.2142653798827667e-07 7.666438414129993e-09 -3.6336975879274044e-06 -2.8259546632991946e-06 4.533581388140346e-07 4.056317502692858e-06 -6.777062693338997e-07 -9.580944257994522e-06 -8.05770328092134e-06 4.041664469337278e-06 -2.7041101687060178e-06 1.3427852530755628e-06 -4.3630882877125267e-07 -2.9833775715186825e-06 -4.291947472888015e-06 2.269743356556899e-05 -6.2538627585236055e-06 4.659352967868045e-06 8.108944402629836e-05 1.2739978499434098e-05 1.3357693886993002e-05 4.3726174875455e-05 2.818204411191664e-06 1.1106714162475273e-05 3.3235163118411495e-05 6.816424973148847e-06 -1.925162521295559e-06 1.3869703797865819e-05 3.404397124187641e-06 -2.406103123334776e-06 4.268769601826413e-05 3.1528618074644463e-06 1.3513577356337975e-05 1.3890651883970526e-05 1.6459639118068934e-06 -3.1885908402273967e-06 0.00011038434299398024 1.1007522125031593e-05 1.4255703295747093e-05 3.766378535899899e-05 8.194450455837937e-06 -2.5504788993930366e-06 3.443498305540456e-05 1.0147974460429172e-05 8.696024226668855e-07 1.5772851560183687e-05 1.6434385686817274e-06 -1.5416822647769992e-06 1.5709388676213425e-05 3.444823623920511e-06 -9.629956190032609e-07 3.9590852637906445e-05 7.939236462713347e-06 -1.7791978582403915e-06 7.518288257995928e-05 5.964803537770454e-06 -1.1953645380255482e-05 3.508656357630469e-05 3.34517177586185e-06 -5.997181357170427e-06 2.9842930160012154e-05 -2.2257134655204363e-06 -9.760838092921642e-06 0.0001056553132012171 1.2167403567671908e-05 -1.1791348350727898e-05 -1.7637200519752502e-07 1.1766180164602196e-05 -7.806587761246355e-06 -4.429976058699396e-06 5.639618299328161e-06 6.883219308661745e-08 -2.9417838309869407e-07 -4.36836126903399e-06 -5.247738125496461e-06 4.7135715636474595e-07 -3.0553541856156826e-06 -2.695931757334895e-06 -2.810290698345535e-06 6.878231491496243e-06 -2.853479227047075e-06 -7.201777010280939e-07 -4.467034360477619e-06 -3.0199266123336566e-07 -2.272057317109618e-05 8.316406204197169e-06 4.509232655046107e-06 1.954919141837661e-06 -3.861639102428294e-06 -2.496641063280104e-06 -8.35102120934242e-07 3.948572041568431e-06 -3.2910942994295972e-06 -3.141571472148279e-07 1.2903413080907349e-06 -3.6764616602017733e-07 -8.166726012855913e-07 1.971450495529696e-06 -5.230285090150862e-07 -2.0981045780387795e-06 3.5791473821821793e-06 1.335478090707481e-06 -8.370279765479976e-07 -1.1240473905932403e-05 -1.141396901193681e-05 4.8349502424248285e-06 -1.7048652070075186e-06 2.595830444491363e-06 -1.1083691912385342e-06 -6.5925667111201925e-06 -4.252371374219978e-06 2.3885745673668688e-05 -2.5902942113005153e-06 4.124249458373878e-06 1.0527076230674273e-06 -3.6703944147972666e-07 5.675282449598914e-07 1.3509783560086115e-06 -1.611675601596442e-07 -6.15581094041399e-07 8.152964440924828e-07 4.5865477671113213e-07 -3.422391209638473e-07 -5.42006423456341e-07 3.841186222408384e-07 1.0883627620241908e-07 3.604251272419813e-07 -1.3609606405737843e-06 5.666482331007308e-07 1.9326719952817405e-07 7.167951818236694e-07 -6.074906223795763e-07 7.49728169962692e-06 -2.621834678304894e-06 -2.835162414821355e-06 -1.514471183561164e-06 6.144604639319134e-07 5.472790283170803e-07 3.659186040494049e-07 3.3263463361680405e-07 3.1596205446130634e-07 4.356495643784946e-07 2.4953793017159215e-07 -1.0522295172629569e-07 -3.0941473135514665e-08 1.6385545629440953e-07 3.187034630984499e-07 7.233458418175837e-08 3.384150708588844e-07 -1.950136941263926e-07 2.0256530215870507e-06 -4.340193157156937e-07 -5.986065128419887e-07 7.56645795203369e-07 1.404747719198284e-07 5.773946090330224e-07 -3.5015431896940934e-07 -8.976512826976597e-07 -1.100702994107661e-06 6.188210031432655e-06 -1.3131107171824096e-06 2.1717077016411427e-06 5.8139589613102466e-08 7.33318311982563e-07 -8.184755430226031e-07 -6.021928710513952e-07 -2.261131322995889e-09 6.850415443483007e-07 -8.186855855198882e-08 -4.4203115719354677e-07 1.4755861708097446e-07 2.3377324345659326e-07 8.237300627538252e-08 -4.0022287822579106e-07 3.933844059181107e-07 8.101213732883873e-07 -1.2209233408377154e-06 -8.271789062673946e-08 -2.6686750203015204e-07 5.803246019165213e-07 -4.6732701258707335e-06 1.3739211383427342e-06 3.4602043098183352e-06 6.018615790122105e-07 3.027506462026352e-09 -4.912144435129989e-07 -9.127401951341992e-08 3.2357192715330405e-07 -3.955234655553109e-07 -1.4017315330130015e-07 -1.065687649335104e-07 1.447303702955162e-07 -2.4906318532523956e-08 2.3433356146988659e-07 -3.056946971573349e-07 -2.3060470733924365e-07 5.920440615353538e-09 1.4066744051899933e-07 -5.653713841087725e-08 -8.528290165913166e-07 -5.887122009684499e-07 3.044940109743235e-07 5.3722033892682786e-08 2.4043212573847654e-07 -3.373393538999876e-07 -4.049550327450116e-07 -4.147913413047303e-07 3.0053214218648545e-06 -8.815712969681905e-07 7.1805212013225e-07 </DataArray>
        <DataArray Name="fixedX" format="ascii" type="Float32">0 0 0 0 0 0 0 0 0 0 0 0 0 0 0 0 0 0 0 0 0 0 0 0 0 0 0 0 0 0 0 0 0 0 0 0 0 0 0 0 0 0 0 0 0 0 0 0 0 0 0 0 0 0 0 0 0 0 0 0 0 0 0 0 0 0 0 0 0 0 0 0 0 0 0 0 0 0 0 0 1 1 1 1 1 1 1 1 1 1 1 1 1 1 1 1 0 0 0 0 0 0 0 0 0 0 0 0 0 0 0 0 0 0 0 0 0 0 0 0 0 0 0 0 0 0 0 0 0 0 0 0 0 0 0 0 0 0 0 0 0 0 0 0 </DataArray>
        <DataArray Name="fixedY" format="ascii" type="Float32">0 0 0 0 0 0 0 0 0 0 0 0 0 0 0 0 0 0 0 0 0 0 0 0 0 0 0 0 0 0 0 0 0 0 0 0 0 0 0 0 0 0 0 0 0 0 0 0 0 0 0 0 0 0 0 0 0 0 0 0 0 0 0 0 0 0 0 0 0 0 0 0 0 0 0 0 0 0 0 0 0 0 0 0 0 0 0 0 0 0 0 0 0 0 0 0 0 0 0 0 0 0 0 0 0 0 0 0 0 0 0 0 0 0 0 0 0 0 0 0 0 0 0 0 0 0 0 0 0 0 0 0 0 0 0 0 0 0 0 0 0 0 0 0 </DataArray>
        <DataArray Name="fixedZ" format="ascii" type="Float32">0 0 0 0 0 0 0 0 0 0 0 0 0 0 0 0 0 0 0 0 0 0 0 0 0 0 0 0 0 0 0 0 0 0 0 0 0 0 0 0 0 0 0 0 0 0 0 0 0 0 0 0 0 0 0 0 0 0 0 0 0 0 0 0 0 0 0 0 0 0 0 0 0 0 0 0 0 0 0 0 0 0 0 0 0 0 0 0 0 0 0 0 0 0 0 0 0 0 0 0 0 0 0 0 0 0 0 0 0 0 0 0 0 0 0 0 0 0 0 0 0 0 0 0 0 0 0 0 0 0 0 0 0 0 0 0 0 0 0 0 0 0 0 0 </DataArray>
      </PointData>
      <Cells>
        <DataArray Name="connectivity" type="Int32">4 0 5 3 7 4 5 3 7 5 6 3 0 1 5 6 0 2 1 6 0 3 2 6 7 3 6 9 11 7 6 9 11 6 10 9 3 2 6 10 3 8 2 10 3 9 8 10 11 9 10 13 15 11 10 13 15 10 14 13 9 8 10 14 9 12 8 14 9 13 12 14 16 4 17 7 19 16 17 7 19 17 18 7 4 5 17 18 4 6 5 18 4 7 6 18 19 7 18 11 21 19 18 11 21 18 20 11 7 6 18 20 7 10 6 20 7 11 10 20 21 11 20 15 23 21 20 15 23 20 22 15 11 10 20 22 11 14 10 22 11 15 14 22 24 16 25 19 27 24 25 19 27 25 26 19 16 17 25 26 16 18 17 26 16 19 18 26 27 19 26 21 29 27 26 21 29 26 28 21 19 18 26 28 19 20 18 28 19 21 20 28 29 21 28 23 31 29 28 23 31 28 30 23 21 20 28 30 21 22 20 30 21 23 22 30 5 1 34 2 6 5 34 2 6 34 35 2 1 32 34 35 1 33 32 35 1 2 33 35 6 2 35 8 10 6 35 8 10 35 37 8 2 33 35 37 2 36 33 37 2 8 36 37 10 8 37 12 14 10 37 12 14 37 39 12 8 36 37 39 8 38 36 39 8 12 38 39 17 5 40 6 18 17 40 6 18 40 41 6 5 34 40 41 5 35 34 41 5 6 35 41 18 6 41 10 20 18 41 10 20 41 42 10 6 35 41 42 6 37 35 42 6 10 37 42 20 10 42 14 22 20 42 14 22 42 43 14 10 37 42 43 10 39 37 43 10 14 39 43 25 17 44 18 26 25 44 18 26 44 45 18 17 40 44 45 17 41 40 45 17 18 41 45 26 18 45 20 28 26 45 20 28 45 46 20 18 41 45 46 18 42 41 46 18 20 42 46 28 20 46 22 30 28 46 22 30 46 47 22 20 42 46 47 20 43 42 47 20 22 43 47 34 32 50 33 35 34 50 33 35 50 51 33 32 48 50 51 32 49 48 51 32 33 49 51 35 33 51 36 37 35 51 36 37 51 53 36 33 49 51 53 33 52 49 53 33 36 52 53 37 36 53 38 39 37 53 38 39 53 55 38 36 52 53 55 36 54 52 55 36 38 54 55 40 34 56 35 41 40 56 35 41 56 57 35 34 50 56 57 34 51 50 57 34 35 51 57 41 35 57 37 42 41 57 37 42 57 58 37 35 51 57 58 35 53 51 58 35 37 53 58 42 37 58 39 43 42 58 39 43 58 59 39 37 53 58 59 37 55 53 59 37 39 55 59 44 40 60 41 45 44 60 41 45 60 61 41 40 56 60 61 40 57 56 61 40 41 57 61 45 41 61 42 46 45 61 42 46 61 62 42 41 57 61 62 41 58 57 62 41 42 58 62 46 42 62 43 47 46 62 43 47 62 63 43 42 58 62 63 42 59 58 63 42 43 59 63 50 48 66 49 51 50 66 49 51 66 67 49 48 64 66 67 48 65 64 67 48 49 65 67 51 49 67 52 53 51 67 52 53 67 69 52 49 65 67 69 49 68 65 69 49 52 68 69 53 52 69 54 55 53 69 54 55 69 71 54 52 68 69 71 52 70 68 71 52 54 70 71 56 50 72 51 57 56 72 51 57 72 73 51 50 66 72 73 50 67 66 73 50 51 67 73 57 51 73 53 58 57 73 53 58 73 74 53 51 67 73 74 51 69 67 74 51 53 69 74 58 53 74 55 59 58 74 55 59 74 75 55 53 69 74 75 53 71 69 75 53 55 71 75 60 56 76 57 61 60 76 57 61 76 77 57 56 72 76 77 56 73 72 77 56 57 73 77 61 57 77 58 62 61 77 58 62 77 78 58 57 73 77 78 57 74 73 78 57 58 74 78 62 58 78 59 63 62 78 59 63 78 79 59 58 74 78 79 58 75 74 79 58 59 75 79 66 64 82 65 67 66 82 65 67 82 83 65 64 80 82 83 64 81 80 83 64 65 81 83 67 65 83 68 69 67 83 68 69 83 85 68 65 81 83 85 65 84 81 85 65 68 84 85 69 68 85 70 71 69 85 70 71 85 87 70 68 84 85 87 68 86 84 87 68 70 86 87 72 66 88 67 73 72 88 67 73 88 89 67 66 82 88 89 66 83 82 89 66 67 83 89 73 67 89 69 74 73 89 69 74 89 90 69 67 83 89 90 67 85 83 90 67 69 85 90 74 69 90 71 75 74 90 71 75 90 91 71 69 85 90 91 69 87 85 91 69 71 87 91 76 72 92 73 77 76 92 73 77 92 93 73 72 88 92 93 72 89 88 93 72 73 89 93 77 73 93 74 78 77 93 74 78 93 94 74 73 89 93 94 73 90 89 94 73 74 90 94 78 74 94 75 79 78 94 75 79 94 95 75 74 90 94 95 74 91 90 95 74 75 91 95 82 80 98 81 83 82 98 81 83 98 99 81 80 96 98 99 80 97 96 99 80 81 97 99 83 81 99 84 85 83 99 84 85 99 101 84 81 97 99 101 81 100 97 101 81 84 100 101 85 84 101 86 87 85 101 86 87 101 103 86 84 100 101 103 84 102 100 103 84 86 102 103 88 82 104 83 89 88 104 83 89 104 105 83 82 98 104 105 82 99 98 105 82 83 99 105 89 83 105 85 90 89 105 85 90 105 106 85 83 99 105 106 83 101 99 106 83 85 101 106 90 85 106 87 91 90 106 87 91 106 107 87 85 101 106 107 85 103 101 107 85 87 103 107 92 88 108 89 93 92 108 89 93 108 109 89 88 104 108 109 88 105 104 109 88 89 105 109 93 89 109 90 94 93 109 90 94 109 110 90 89 105 109 110 89 106 105 110 89 90 106 110 94 90 110 91 95 94 110 91 95 110 111 91 90 106 110 111 90 107 106 111 90 91 107 111 98 96 114 97 99 98 114 97 99 114 115 97 96 112 114 115 96 113 112 115 96 97 113 115 99 97 115 100 101 99 115 100 101 115 117 100 97 113 115 117 97 116 113 117 97 100 116 117 101 100 117 102 103 101 117 102 103 117 119 102 100 116 117 119 100 118 116 119 100 102 118 119 104 98 120 99 105 104 120 99 105 120 121 99 98 114 120 121 98 115 114 121 98 99 115 121 105 99 121 101 106 105 121 101 106 121 122 101 99 115 121 122 99 117 115 122 99 101 117 122 106 101 122 103 107 106 122 103 107 122 123 103 101 117 122 123 101 119 117 123 101 103 119 123 108 104 124 105 109 108 124 105 109 124 125 105 104 120 124 125 104 121 120 125 104 105 121 125 109 105 125 106 110 109 125 106 110 125 126 106 105 121 125 126 105 122 121 126 105 106 122 126 110 106 126 107 111 110 126 107 111 126 127 107 106 122 126 127 106 123 122 127 106 107 123 127 114 112 130 113 115 114 130 113 115 130 131 113 112 128 130 131 112 129 128 131 112 113 129 131 115 113 131 116 117 115 131 116 117 131 133 116 113 129 131 133 113 132 129 133 113 116 132 133 117 116 133 118 119 117 133 118 119 133 135 118 116 132 133 135 116 134 132 135 116 118 134 135 120 114 136 115 121 120 136 115 121 136 137 115 114 130 136 137 114 131 130 137 114 115 131 137 121 115 137 117 122 121 137 117 122 137 138 117 115 131 137 138 115 133 131 138 115 117 133 138 122 117 138 119 123 122 138 119 123 138 139 119 117 133 138 139 117 135 133 139 117 119 135 139 124 120 140 121 125 124 140 121 125 140 141 121 120 136 140 141 120 137 136 141 120 121 137 141 125 121 141 122 126 125 141 122 126 141 142 122 121 137 141 142 121 138 137 142 121 122 138 142 126 122 142 123 127 126 142 123 127 142 143 123 122 138 142 143 122 139 138 143 122 123 139 143 </DataArray>
        <DataArray Name="offsets" type="Int32">4 8 12 16 20 24 28 32 36 40 44 48 52 56 60 64 68 72 76 80 84 88 92 96 100 104 108 112 116 120 124 128 132 136 140 144 148 152 156 160 164 168 172 176 180 184 188 192 196 200 204 208 212 216 220 224 228 232 236 240 244 248 252 256 260 264 268 272 276 280 284 288 292 296 300 304 308 312 316 320 324 328 332 336 340 344 348 352 356 360 364 368 372 376 380 384 388 392 396 400 404 408 412 416 420 424 428 432 436 440 444 448 452 456 460 464 468 472 476 480 484 488 492 496 500 504 508 512 516 520 524 528 532 536 540 544 548 552 556 560 564 568 572 576 580 584 588 592 596 600 604 608 612 616 620 624 628 632 636 640 644 648 652 656 660 664 668 672 676 680 684 688 692 696 700 704 708 712 716 720 724 728 732 736 740 744 748 752 756 760 764 768 772 776 780 784 788 792 796 800 804 808 812 816 820 824 828 832 836 840 844 848 852 856 860 864 868 872 876 880 884 888 892 896 900 904 908 912 916 920 924 928 932 936 940 944 948 952 956 960 964 968 972 976 980 984 988 992 996 1000 1004 1008 1012 1016 1020 1024 1028 1032 1036 1040 1044 1048 1052 1056 1060 1064 1068 1072 1076 1080 1084 1088 1092 1096 1100 1104 1108 1112 1116 1120 1124 1128 1132 1136 1140 1144 1148 1152 1156 1160 1164 1168 1172 1176 1180 1184 1188 1192 1196 1200 1204 1208 1212 1216 1220 1224 1228 1232 1236 1240 1244 1248 1252 1256 1260 1264 1268 1272 1276 1280 1284 1288 1292 1296 1300 1304 1308 1312 1316 1320 1324 1328 1332 1336 1340 1344 1348 1352 1356 1360 1364 1368 1372 1376 1380 1384 1388 1392 1396 1400 1404 1408 1412 1416 1420 1424 1428 1432 1436 1440 1444 1448 1452 1456 1460 1464 1468 1472 1476 1480 1484 1488 1492 1496 1500 1504 1508 1512 1516 1520 1524 1528 1532 1536 1540 1544 1548 1552 1556 1560 1564 1568 1572 1576 1580 1584 1588 1592 1596 1600 1604 1608 1612 1616 1620 1624 1628 1632 1636 1640 1644 1648 1652 1656 1660 1664 1668 1672 1676 1680 1684 1688 1692 1696 1700 1704 1708 1712 1716 1720 1724 1728 </DataArray>
        <DataArray Name="types" type="Int32">10 10 10 10 10 10 10 10 10 10 10 10 10 10 10 10 10 10 10 10 10 10 10 10 10 10 10 10 10 10 10 10 10 10 10 10 10 10 10 10 10 10 10 10 10 10 10 10 10 10 10 10 10 10 10 10 10 10 10 10 10 10 10 10 10 10 10 10 10 10 10 10 10 10 10 10 10 10 10 10 10 10 10 10 10 10 10 10 10 10 10 10 10 10 10 10 10 10 10 10 10 10 10 10 10 10 10 10 10 10 10 10 10 10 10 10 10 10 10 10 10 10 10 10 10 10 10 10 10 10 10 10 10 10 10 10 10 10 10 10 10 10 10 10 10 10 10 10 10 10 10 10 10 10 10 10 10 10 10 10 10 10 10 10 10 10 10 10 10 10 10 10 10 10 10 10 10 10 10 10 10 10 10 10 10 10 10 10 10 10 10 10 10 10 10 10 10 10 10 10 10 10 10 10 10 10 10 10 10 10 10 10 10 10 10 10 10 10 10 10 10 10 10 10 10 10 10 10 10 10 10 10 10 10 10 10 10 10 10 10 10 10 10 10 10 10 10 10 10 10 10 10 10 10 10 10 10 10 10 10 10 10 10 10 10 10 10 10 10 10 10 10 10 10 10 10 10 10 10 10 10 10 10 10 10 10 10 10 10 10 10 10 10 10 10 10 10 10 10 10 10 10 10 10 10 10 10 10 10 10 10 10 10 10 10 10 10 10 10 10 10 10 10 10 10 10 10 10 10 10 10 10 10 10 10 10 10 10 10 10 10 10 10 10 10 10 10 10 10 10 10 10 10 10 10 10 10 10 10 10 10 10 10 10 10 10 10 10 10 10 10 10 10 10 10 10 10 10 10 10 10 10 10 10 10 10 10 10 10 10 10 10 10 10 10 10 10 10 10 10 10 10 10 10 10 10 10 10 10 10 10 10 10 10 10 10 10 10 10 10 10 10 10 10 10 10 10 10 10 10 10 10 </DataArray>
      </Cells>
    </Piece>
  </UnstructuredGrid>
</VTKFile>
